512
  step=0  temp=          0.00000000  pot=       -176.79049683  ener=       -176.79049683
B           -7.49988270          -5.52693319           3.83408022
A            0.49150854          -4.21561241          -6.79433060
A            2.68944645           6.52039385          -1.74746895
A            4.96447992          -6.98141813          -6.69807529
B            2.56724072          -7.38452721          -1.74876547
A           -1.23771024           2.80159044           1.33464932
A            5.19250345           0.40393174          -6.12052679
A           -1.26000977           3.01785898           6.15481234
B           -3.56320524          -6.78803253           3.54122853
B            1.98957860           3.84615707           7.36556053
A           -3.79441667           7.23825407           3.33990622
A            2.27277875          -6.40971184           1.97452068
B           -3.40935040          -0.95382881           3.99742126
B           -3.93338346          -3.37639737          -2.11102533
B           -0.20223945           5.96484375           6.13812160
B            6.06979609           0.06784379           0.24437964
B            7.29963207          -0.09034976          -3.50783229
B            6.71646404          -6.39376402           0.01060635
B           -3.34377313           6.20726204           0.44621050
A            6.61469936          -6.74874020           3.92271376
A            4.91725969          -5.61951923          -7.26198435
A            5.52370739           1.94315135           3.54336786
B            7.49186850           5.82858324          -4.00207710
A           -2.23477149           0.19910574           1.36670351
B           -1.31878853           5.12265968          -3.46024084
B            0.55955976          -0.48123926          -3.19181442
B           -5.19420052           1.07482195           4.53608561
A            0.51674724          -0.02279833           6.83041143
A            0.81875771           5.86106205           1.87273979
B           -5.10348701          -4.30872726           3.22064996
B           -6.13514519          -3.38117790          -7.45500612
B           -7.09685564           3.14729428           6.56845999
A           -4.78656149          -2.73690677           5.80486012
B           -5.24497414           2.72019362          -1.71277952
A           -0.00388473          -5.28700495           1.30779958
B            1.35162950           6.83113194           0.84219217
A            7.24957657          -1.36849976          -5.37270355
A           -3.71810412          -0.17228186          -0.53954196
A           -5.60953808          -4.50364208          -2.71125507
A           -5.59931755           2.26880646           1.82451010
B           -3.78237367          -0.35352275          -1.66028738
B           -7.07437229           6.02510262          -1.10253906
B            5.78472567          -6.11739540          -5.06702185
A           -2.01991439          -3.70413971          -5.47335958
A           -0.67039084          -2.25713778          -0.71549761
A            6.47511625           2.27469110          -4.27127409
B            6.13382864          -3.74811625           5.41289711
A            0.08933812           1.50590563           4.76342249
B           -0.56632519           6.77051163           1.99108064
A            4.87046051           2.83471394           3.03310013
A            6.81622362           5.26904488          -3.16025686
A            0.21652043          -5.94849110          -1.28957260
A            5.64848518          -0.89942026           3.44621468
A            3.23463488           4.51080513           3.09803200
B           -7.21361399           5.79046631           0.37481099
A           -6.52209187           3.20133448          -0.16585261
A            2.73073649          -4.50667906           6.24950838
B            5.85028076           0.65922439          -5.41207504
B            7.34043694          -4.26702023          -0.80964851
B            0.21989197           5.72256184          -0.90411675
A            4.59974861          -2.02262926          -4.32721567
A           -7.49107456          -7.48681498           4.10028028
A           -2.71233606          -1.23414421           2.73741341
A           -4.42107153           5.04629803           3.13380909
A           -6.08176804          -6.27393579           3.96007252
B           -4.29221725          -4.29679823          -6.28408813
B            6.78239441           6.71317577          -1.65219605
A            2.88253427          -3.23947453           4.15298748
B           -1.16310287          -3.26766205          -4.59048796
A           -4.62264252           7.24853659          -3.83918643
B           -5.45317602          -1.52784479           1.51515126
A           -4.20884037           2.02076197           2.94010973
A            2.94364214           3.79410625           2.54280925
B           -6.65338993           1.47324979          -4.09488440
A            2.99751711          -5.73844576           3.93856096
A            0.80866992           1.31983376          -2.55500436
A           -5.35432100          -5.07468462          -0.22012219
B            4.69898605           0.85253656           3.58494949
A           -5.47001696           0.42822361          -2.83891702
B           -1.94660604          -1.60473609          -0.79701078
B           -1.68253183          -3.31060410          -6.32605171
A            0.20904601           3.42912555           3.31151700
B           -0.58953971           6.60244703          -2.67659879
A            0.25718004           2.42033243          -1.47250640
B            7.29753971          -5.24409151           2.55147648
B            0.62565297           0.34211576           4.93858051
A           -3.38685393           2.14468360           0.69204926
A           -3.50079989           7.05130053          -3.79900289
B            2.91035509          -0.66372603           4.75652027
B           -5.08876610           3.10424924           3.11739469
B           -4.93231630          -7.43619108          -0.06463408
A           -5.05378437           6.04951763           4.24488020
A           -0.95361471          -7.40487480           1.27180791
B           -6.49725342           0.66034108          -1.65402889
A           -1.71345854           1.90292096           2.38579988
B            0.57991952          -3.29566598           4.73898220
B            2.79152417          -2.84746575          -7.35978699
B            0.31440139           4.13820505          -4.18972254
B           -6.44047689          -5.09589100           3.35645556
A           -6.74096107          -0.33293545          -0.64257145
A           -0.80265641          -5.24532700          -3.21086431
B            2.93456101           1.16664028           2.71746659
B           -6.63787079           7.30324459           0.63589722
B            5.34288979          -7.05966759          -1.83674407
A            1.14259422           3.58438063           2.68998289
B           -6.96618462          -5.66239643           7.10033464
B           -2.23021889           1.71188235           1.61417222
A            0.79293251           6.81042719          -2.14612532
B            7.11378527          -3.61478710          -3.72708583
A            4.69572020           5.96871328          -3.83120680
A            2.92284608          -0.72223175          -3.54569626
A           -5.75143433          -4.35656548          -5.79486513
B           -7.40880966          -4.86038589           1.49039006
A           -6.26240206           2.81121707          -1.87034905
B           -5.64543962           7.10019255          -7.05547047
B           -0.08633047           4.04156065           6.51045704
A           -2.10513258           4.03671122          -0.00067011
B            2.57855225           2.72498655           3.85155296
A           -4.04142189          -4.17499018           0.93903065
B            1.74915612          -1.92801380          -4.12798214
B            2.29517436          -5.01108694           3.66156316
A           -6.78542089           2.42990255          -5.62582636
B           -0.23729324           1.81568480           6.21037531
B            1.40318513           3.32807422          -0.05126998
B           -0.87551105           0.28762311           4.07916260
B           -0.85814506           7.15770292          -0.48387945
B           -0.81105220           3.64910960          -4.41988039
B           -1.91220355           6.59588099           6.97276878
B           -6.44497204          -5.64226818           0.39506793
B            0.26560843          -5.92222738           5.12364054
A           -1.14164293          -2.59158659           3.20319772
A            5.57826328           3.87368655           5.04896784
B           -1.66409659           6.52862358           1.58403850
B            0.59256971          -0.67391396          -1.47461724
B           -6.25371408          -1.17632031          -0.41430071
A           -5.92546272          -4.25420761           4.53027964
A            2.53230476           5.45464134          -3.84374523
B           -3.54505587          -1.75767756          -6.28491735
B           -4.00699520           4.43028975          -0.12985379
B           -3.50821280           2.47033238          -1.12213349
B            6.69066858          -4.93267155           1.59001970
A           -2.28762484          -3.11297989           0.14487326
A            5.01507664           3.39664674          -2.55848598
B            1.97644925          -6.81988907          -6.87869358
A            4.00597477          -6.57402945           0.28954804
B            2.99536490           3.09691882          -0.08053645
B            3.17356920          -1.82450700          -4.49033213
A           -0.95855623          -0.45752272           5.41781187
B           -0.83221209          -6.98635340           0.35657644
B            3.79760647           1.37382293           4.84336567
B           -4.01882887           0.54792434          -1.04072392
A            7.30987072           7.00364494           5.25795841
A           -2.82592225          -5.27414370           7.46397877
A           -0.47887892           6.47872114           2.86158895
A            0.62301993           1.09209800          -5.11175823
A           -2.34579921          -5.84970856          -6.05192566
A           -7.16392422           0.92225611           5.35314178
A           -2.31192374          -6.50564575          -5.38934278
B           -4.17515326          -1.79828119           1.29023647
A           -7.10490465           2.86689711           3.93515825
A           -6.34013510           1.34714031           6.38254595
A            0.29004961          -0.13774484          -5.07870865
A            1.11540377          -3.40123320           0.47140986
A            2.50573921          -6.03851175           0.73104411
A            2.51948118          -0.07311970           1.07373929
A           -0.88030189          -5.23174667           0.03412127
B           -7.02515173          -6.72574949           0.33095241
B           -6.97410727          -3.82286501          -5.89229202
A            0.77744097           1.45752764           1.66665852
A            4.08045435           0.19722730          -0.19978255
B            2.95493603          -1.38693404          -0.19725725
A            3.15675068           0.51297963          -3.35029554
A           -3.29844379           3.05054164           0.45734346
A            4.24503469           6.30378580           2.72236705
A            0.41119516          -4.04595375          -5.34473801
A           -3.72866845           2.27271795          -7.42776585
A           -3.36970425           5.38148832          -3.31607127
A            3.03707075          -0.95263171          -5.88391781
B           -6.00201607          -0.88102162          -2.33135271
B            3.86431742          -2.42235613          -2.53862453
B            1.09774411          -0.22070959          -4.46277046
B           -1.98907745           4.57368565          -5.06694269
B           -6.63415623          -5.26122904          -0.47847882
A            5.75556993          -1.13799691          -1.31628060
A           -2.87508750          -6.59786320           4.71624708
B            6.29237938           6.01826906           4.05069733
A            1.08662903          -7.02894354           4.54901743
A            1.30292952          -1.66242146           4.67843056
A            6.59807253          -1.19942892           1.19793797
A            5.71176147          -2.42872953          -4.65677118
A            3.28379178           5.68742752          -6.40696430
B            5.68589783          -2.10930872          -6.15220356
A           -1.24805462          -6.05357170           2.62039304
A            4.69570208           5.67287636           4.04040194
B            5.94785929           5.67619419          -0.20293951
B           -1.83773208          -1.76070619           2.81366849
A            3.12881923          -3.92970991          -1.63550067
B            1.93149984           2.71798253           6.13035870
B            5.38819599           4.41416836          -1.06690049
B           -0.02054170          -0.24190754          -0.73897809
B            3.61138153           6.49265194          -2.99817371
B           -5.84972286          -6.29516935           7.08714390
B           -3.92384458           6.94740343           5.00211048
B            1.13518775          -0.89597893           1.28511882
B           -1.97695971          -1.76524663           1.50198960
A           -5.26818848           2.55294991           7.43100929
A           -1.45890176           5.23917389           4.79290819
A           -1.88625908          -7.35588169          -0.30332074
B            2.19742823           2.17346811           4.48552179
A           -2.13492346          -1.65749300          -2.48539877
A           -5.32653809          -3.12711954           2.50284529
B           -2.77951694          -5.33786345           1.53374076
B            6.31244278          -1.77067590           0.24797201
B           -3.53799820          -3.13500309           5.00472212
B            2.01929116          -6.76953840          -0.62931192
B           -5.16190672           3.83783531           2.48959780
B            4.42321110           0.91371596          -3.17018294
A           -2.69082999           0.21885484           3.28732872
A           -6.74935389          -6.39224529          -4.46325970
B            4.97285843          -1.16171300           5.09322882
A           -4.78206348          -2.13711476           6.51165247
A           -1.96439314          -0.55411935           1.91745496
A           -1.41320539          -6.74277544          -0.82724822
B            3.72466564           5.46257353          -5.53465414
A            2.47962189           5.00066757           1.21927679
B            7.23048639          -7.21625996           6.32209349
A            2.14540052          -2.25706410           0.52314252
A           -2.64856696           5.53781939          -0.86444509
B           -3.34998655           6.77629900          -5.74143267
A            5.04563236           6.93803167          -2.50607538
A            0.53934485           4.77160978           6.44835138
B           -3.85157251           6.62143421           1.45084715
B           -3.79539490           5.80088329          -4.55733061
A            5.03995562           1.53607702           1.84863925
A            2.57472301          -1.62666941           5.56925726
A           -5.76590109          -7.49939680           2.64097905
B           -0.68179250           1.11518919          -7.01595926
A            5.32623672          -1.93744135           2.42138124
B           -6.60060310           3.66702509          -3.30760193
A           -4.85369921          -6.12298679           5.95867109
B            1.41238785          -7.00494671           2.86397338
B            2.82891321          -4.45262527          -0.27419597
B            6.70679855          -3.83549714           6.79893208
B           -5.59368610           6.92154217           5.35733700
A           -7.39488077           4.23711872          -6.74410057
B            2.12061071           1.10100293          -5.44359875
A            4.86940098           0.02780646           2.33831596
A            0.39681494          -5.72404099           6.04584599
A           -3.33621120          -1.69938862          -1.62759757
A           -3.85497999          -5.64833546           3.42459798
B           -4.48174953           5.23043013          -7.16165400
A           -4.68031693          -2.08548856           4.19487667
B            2.49546099           1.21454000          -2.23241138
A           -3.11863875          -4.96335697          -4.14454889
A           -3.26670623          -3.53007364          -4.95058584
B           -6.40224409           7.48103523           3.75256324
B           -5.03100634          -1.12339497           4.09803629
B           -0.99107534          -7.00384140           6.43982220
B           -3.63713264          -4.29126310          -3.26303291
A            6.11771727          -4.53149223          -5.78839970
B            2.97243834          -7.22623205           3.71953464
B            5.92445517           2.31943130          -2.31164169
A           -4.27426243          -2.53062630          -7.23322344
A            4.28204918          -1.59823585           3.44975185
A            5.66695070          -5.55586052          -2.34862661
A           -2.06712794          -2.21909261          -6.29017210
A            4.14590120           5.16302156          -0.10056764
B            2.14101434          -0.96937090          -2.21528292
B            3.66870141          -5.13689852           4.14626503
A            1.68086624           5.31904650          -2.78088760
B           -5.61116743          -1.89507365          -5.50059938
B           -6.43574810          -0.61629385           6.94865322
A           -4.53723097           2.75919104          -6.28010273
A           -5.21156073          -5.69735003           4.63685703
B           -6.81719494          -6.59606457           4.94583321
A            4.51751757          -4.08767223          -1.51178145
A            2.32809567          -6.69409800           7.29545307
A           -1.29630625          -7.02242374          -5.87926960
B            5.50678682           2.56619358           5.01553345
B            3.25408101           1.34562039          -4.16190147
A           -7.47639561          -0.78279018          -1.35351372
B            5.39265823           4.40808249           1.64202237
B            1.86007619           2.30809546           2.16584706
A           -7.10999537           7.30562401          -4.38376045
B            0.90487003          -1.84599817          -5.68963909
B           -5.43426609           1.28700161           0.63900501
A           -5.98786306          -3.01183271           5.12501907
A            4.91890574           7.05448341           4.69920063
B            2.90889144           4.73639107          -0.47686055
B           -1.47667897           6.45977926          -0.49186796
A            0.26393294          -4.08365631           5.98900986
B           -5.44508982          -0.62278616           2.83701372
B           -1.36082590           3.59897470          -7.03117418
A           -4.61029911           4.69784164          -3.37697005
A           -1.37060297           4.27609539           3.33439350
B            1.91692114          -2.30352974          -0.42215243
A           -5.42997026          -1.51286340          -1.69630539
B           -6.65797853          -0.64681470           3.98297668
A            6.92880917           7.49999905           7.48638248
B            1.51101613           0.64236760          -3.72460747
A            1.13436079           0.20638525           3.71551228
B            7.34452772           4.47675514           0.82166344
A           -5.89484406           0.35676777          -3.80549335
A           -2.48451948           2.68064165          -6.45950079
A            3.66111875           2.42836571          -1.45824504
A            0.83179146          -0.08825406           1.71752119
A            1.70889163          -3.65424562          -6.90505075
B           -1.85584593          -6.20091343           1.24672914
A            0.95975339           5.57806110           0.47790349
A           -6.59638071          -0.36983684          -5.84801674
B            0.74272513           2.98056817          -5.59144258
A           -0.90733767           5.37766743           7.45765066
A           -5.63573551           5.19488001          -4.64613152
B            2.34408879           7.09789753          -0.63575375
A            1.46934533           5.28312302          -6.55670929
A            2.75047398          -2.79020500          -4.97276020
B            6.31403542          -5.01353264          -7.44272375
B            2.61678267           0.26223332          -2.64892602
B           -2.68763590          -6.09534359           5.55656433
B           -4.94480038          -7.25888157          -5.01879358
B           -2.08211350           0.91699630           6.95758772
B            5.79527569           6.19835281           0.71101874
A            1.24595308           0.73359758          -0.42370453
B           -2.51531577          -4.91311979           0.19445479
B            4.92247295           7.00556803          -7.42833233
B           -0.68151045           5.85679483           5.15298748
A            3.50866294           5.09334517          -1.15558243
B           -1.41188848           0.39450109           0.38340390
B           -1.44468200           4.23195553          -3.52816558
B           -4.73467445          -0.67201185           0.49770534
B            6.38654327          -1.36413574          -7.03218842
B            0.97591996           7.28146601          -5.39611435
B           -2.86322284          -2.18510485          -5.05698013
A           -6.93475771          -2.47345304          -6.32678890
B           -0.13316944          -3.18193054          -3.70922279
A            7.09043932          -5.98695326          -2.72435093
B            4.27921772          -4.19414425          -5.97808552
A           -0.93733907          -3.85483789          -3.26109719
A            5.73453140           5.27474022           2.55702138
A            3.86749768           6.02994537           5.30070210
A           -1.87439787          -3.00745630           3.68283296
B            3.99470067          -1.07085586           2.12497473
A           -5.96297789          -4.77179432           5.45041037
A            4.96003580          -6.67785168          -4.65567160
A            3.97813702           5.54816341          -7.01491785
B           -1.86844516           7.04500532          -4.60278893
A           -6.22840738           4.15476036           4.06634855
A           -6.72096443           5.75347042          -6.42545271
A           -3.45124078          -0.00340283           2.80976510
B            6.66971159           2.84561110           6.17659712
A            4.72997808          -3.25758743          -0.27184144
B            6.03740406          -4.34903765           0.72547674
A           -3.55271006           4.60052586          -3.96249294
A           -2.46591711           0.33196270          -0.70675313
B            2.50656462          -7.17351151           4.78807402
A            0.62694401           7.04549885           3.69425821
B            3.88048410          -0.70157647          -1.39875281
B            3.03419447          -4.29271030           2.41766000
A           -3.35409975          -2.35276842          -2.97805524
B            6.81437397           4.17272758           6.03455830
B            7.11360168          -6.69371986          -1.35063040
A            4.44057035          -7.32632065           1.53009558
A           -5.85109329           0.67523003          -6.40442371
B           -1.74928761          -0.27855277          -1.63600707
B            1.34453869          -7.33285284          -3.25856423
B            3.68691540           0.98535240           0.81463248
B            4.62464952          -3.51398969          -4.62493515
B            2.22231483           0.44496864          -6.40717888
B           -1.81567311          -6.01714182          -0.10117874
A           -4.25631714          -0.92563838          -2.20310521
A            5.88223648          -2.25090218          -0.91274321
A            7.23252296          -2.98172498           1.14956713
A           -5.35133600           0.09817332          -0.00247255
B           -6.26103687          -4.24405956          -4.90609407
A            5.34754419          -3.81859350           5.90047979
B           -0.20272627          -2.22196841           5.37714529
A           -7.19395256           6.23531246           6.89272451
A            7.46822834          -1.49215710           1.31490374
A           -5.54851437           1.12048745           7.03830051
B           -4.39186335           0.95793217           4.96024847
A           -2.90907574           7.16976738           7.27382994
A           -2.50697184           0.32359958          -6.26407957
B           -4.49396324          -5.04095268          -3.28818583
A           -6.13881731          -5.09988689          -3.79461408
A           -2.50958252           1.45053864           4.20314741
A            6.81530523           4.84197998           4.15557766
A           -1.55017066           1.27886033          -1.19923091
A           -0.33361942           2.86158800           4.70433521
A           -3.07810402           1.30479097          -0.38519785
B           -1.06137919          -3.60121036          -0.53950715
A            2.28697753           7.22982645          -3.30462050
A           -7.42227650          -6.19781113          -6.61204243
B           -3.20113206           3.57243586          -3.06214070
B            6.14960098           6.34591961           5.87679338
B            3.78608656           2.75864387          -0.47839522
A           -4.36870956           0.09585053           5.96656322
A           -5.26944447          -3.55664635          -1.55268204
B            4.05926943           4.13573647          -0.68282378
B            4.94238043          -3.41796851           4.20332003
B           -5.70004654           4.31560564           7.37779856
A           -1.12601185           5.11673737           2.00313354
B           -1.04470205           6.68944359           4.47838163
B           -4.07098770          -6.08999681           5.42144108
B            0.17961234           3.75156021           7.47449017
B           -4.32596207          -1.44439006          -5.86642885
A           -6.04685211          -4.44110775          -1.69364822
B            5.98809958           6.98755074           4.75597954
B            4.76160955           3.37444973          -0.62213790
A            1.39058411           1.55039644           2.51278114
B            3.58645582          -7.43696785           1.88192105
A            1.48169613           2.86449718          -6.39431810
B            3.60715365          -4.57156372          -4.26829243
B            5.08739853           3.91240406          -4.22063398
B           -3.43948030           2.65276647           5.03767872
B            1.84220910           2.00537682          -0.63401294
A            3.37851858          -7.23724079          -1.30745661
B           -5.96613884           2.10531497          -0.96341282
B           -3.86282802          -2.55149794           1.97763658
A            0.66960365           4.03276491          -6.31588364
A            5.07720423          -2.42321491          -1.97475410
A           -1.30777490          -4.77028513           0.81665128
B           -2.23547459           3.37937069           7.07984972
B            3.44826412          -5.02435398           5.68317699
A            2.66375637          -5.24443293          -3.18223929
B            4.93996668           1.02163815          -4.32986498
B            1.23175621           2.12469935          -5.17412233
B           -2.88712358           1.11459637          -1.97086620
B           -3.36978292           4.05891085          -1.88688982
A            0.24013728           0.98190933           2.94626260
B            4.61500454          -0.61738908           3.54197240
A           -2.58239508          -7.31307745          -0.89042771
A            6.49645710           0.95234156           1.00589812
A            7.31679821           3.42679644          -5.83238173
A           -0.83271146          -0.37837341           0.67479461
B           -5.27260160           3.38432741           0.38184553
A            1.31689131          -7.00564432           6.13428068
B            0.11951208          -1.36285770          -0.55185688
A           -4.92406368          -3.73911428           6.70545912
A            4.80138206          -3.16936469          -2.51042247
A           -1.02853644          -6.61431265          -1.75271225
A            0.27016282          -4.36671829           3.56743193
A           -7.06309223           0.60833216          -5.76078463
A            1.98046899           0.74523479           0.16172469
B            1.95247650          -4.73464441          -0.16885445
B            2.80258203           3.00352526           5.24155760
B            4.50765705          -4.81143284          -0.75260234
A           -4.68546152           1.45105362          -2.14257097
B           -1.15349114          -6.72189140           5.17519999
B            6.36016750           5.34091759           4.80203676
B            7.12361717          -3.36624384           3.53923917
A            4.93569565           4.23262215          -7.31454372
A            1.58016086          -7.24158335           0.70785373
B           -5.55370903           3.81342530          -2.75733042